HEADER
"PSFversion" "1.00"
"Time Stamp" "May  9 10:23:08 2017"
TYPE
"variable" STRUCT(
"value" FLOAT DOUBLE
) PROP( "key" "element" )
VALUE
"delay" "variable" ( 122e-12 ) PROP( )
"temp" "variable" ( 27 ) PROP( )
END
