HEADER
"PSFversion" "1.00"
"Time Stamp" "Apr 20 13:13:33 2017"
TYPE
"variable" STRUCT(
"value" FLOAT DOUBLE
) PROP( "key" "element" )
VALUE
"Per" "variable" ( 137.5e-12 ) PROP( )
"temp" "variable" ( 27 ) PROP( )
END
