HEADER
"PSFversion" "1.00"
"Time Stamp" "May  5 10:05:27 2017"
TYPE
"variable" STRUCT(
"value" FLOAT DOUBLE
) PROP( "key" "element" )
VALUE
"delay" "variable" ( 111e-12 ) PROP( )
"temp" "variable" ( 27 ) PROP( )
END
