HEADER
"PSFversion" "1.00"
"Run Generator" "drlRun rev. 1.0"
"Run Time Stamp" "May  9 14:01:41 2017"
"simulator" "spectre"
"netlistDir" ".."
TYPE
"runObject" STRUCT(
"logName" ARRAY( * ) STRING *
"parent" STRING *
"sweepVariable" ARRAY( * ) STRING *
) PROP( "key" "runObject" )
VALUE
"Root" "runObject" (
("")
""
("delay")
)
"delay=1.3e-10" "runObject" (
(
"../delay=1.3e-10/psf/logFile"
"../delay=1.3e-10/psf/artistLogFile"
)
"Root"
()
) PROP(
 "delay" 1.300000e-10
"netlistDir" ".."
"dataDir" "../delay=1.3e-10"
)

"delay=1.29e-10" "runObject" (
(
"../delay=1.29e-10/psf/logFile"
"../delay=1.29e-10/psf/artistLogFile"
)
"Root"
()
) PROP(
 "delay" 1.290000e-10
"netlistDir" ".."
"dataDir" "../delay=1.29e-10"
)

"delay=1.28e-10" "runObject" (
(
"../delay=1.28e-10/psf/logFile"
"../delay=1.28e-10/psf/artistLogFile"
)
"Root"
()
) PROP(
 "delay" 1.280000e-10
"netlistDir" ".."
"dataDir" "../delay=1.28e-10"
)

"delay=1.27e-10" "runObject" (
(
"../delay=1.27e-10/psf/logFile"
"../delay=1.27e-10/psf/artistLogFile"
)
"Root"
()
) PROP(
 "delay" 1.270000e-10
"netlistDir" ".."
"dataDir" "../delay=1.27e-10"
)

"delay=1.26e-10" "runObject" (
(
"../delay=1.26e-10/psf/logFile"
"../delay=1.26e-10/psf/artistLogFile"
)
"Root"
()
) PROP(
 "delay" 1.260000e-10
"netlistDir" ".."
"dataDir" "../delay=1.26e-10"
)

"delay=1.25e-10" "runObject" (
(
"../delay=1.25e-10/psf/logFile"
"../delay=1.25e-10/psf/artistLogFile"
)
"Root"
()
) PROP(
 "delay" 1.250000e-10
"netlistDir" ".."
"dataDir" "../delay=1.25e-10"
)

"delay=1.24e-10" "runObject" (
(
"../delay=1.24e-10/psf/logFile"
"../delay=1.24e-10/psf/artistLogFile"
)
"Root"
()
) PROP(
 "delay" 1.240000e-10
"netlistDir" ".."
"dataDir" "../delay=1.24e-10"
)

"delay=1.23e-10" "runObject" (
(
"../delay=1.23e-10/psf/logFile"
"../delay=1.23e-10/psf/artistLogFile"
)
"Root"
()
) PROP(
 "delay" 1.230000e-10
"netlistDir" ".."
"dataDir" "../delay=1.23e-10"
)

"delay=1.22e-10" "runObject" (
(
"../delay=1.22e-10/psf/logFile"
"../delay=1.22e-10/psf/artistLogFile"
)
"Root"
()
) PROP(
 "delay" 1.220000e-10
"netlistDir" ".."
"dataDir" "../delay=1.22e-10"
)

"delay=1.21e-10" "runObject" (
(
"../delay=1.21e-10/psf/logFile"
"../delay=1.21e-10/psf/artistLogFile"
)
"Root"
()
) PROP(
 "delay" 1.210000e-10
"netlistDir" ".."
"dataDir" "../delay=1.21e-10"
)

"delay=1.2e-10" "runObject" (
(
"../delay=1.2e-10/psf/logFile"
"../delay=1.2e-10/psf/artistLogFile"
)
"Root"
()
) PROP(
 "delay" 1.200000e-10
"netlistDir" ".."
"dataDir" "../delay=1.2e-10"
)

"delay=1.19e-10" "runObject" (
(
"../delay=1.19e-10/psf/logFile"
"../delay=1.19e-10/psf/artistLogFile"
)
"Root"
()
) PROP(
 "delay" 1.190000e-10
"netlistDir" ".."
"dataDir" "../delay=1.19e-10"
)

"delay=1.18e-10" "runObject" (
(
"../delay=1.18e-10/psf/logFile"
"../delay=1.18e-10/psf/artistLogFile"
)
"Root"
()
) PROP(
 "delay" 1.180000e-10
"netlistDir" ".."
"dataDir" "../delay=1.18e-10"
)

"delay=1.17e-10" "runObject" (
(
"../delay=1.17e-10/psf/logFile"
"../delay=1.17e-10/psf/artistLogFile"
)
"Root"
()
) PROP(
 "delay" 1.170000e-10
"netlistDir" ".."
"dataDir" "../delay=1.17e-10"
)

"delay=1.16e-10" "runObject" (
(
"../delay=1.16e-10/psf/logFile"
"../delay=1.16e-10/psf/artistLogFile"
)
"Root"
()
) PROP(
 "delay" 1.160000e-10
"netlistDir" ".."
"dataDir" "../delay=1.16e-10"
)

"delay=1.15e-10" "runObject" (
(
"../delay=1.15e-10/psf/logFile"
"../delay=1.15e-10/psf/artistLogFile"
)
"Root"
()
) PROP(
 "delay" 1.150000e-10
"netlistDir" ".."
"dataDir" "../delay=1.15e-10"
)

"delay=1.14e-10" "runObject" (
(
"../delay=1.14e-10/psf/logFile"
"../delay=1.14e-10/psf/artistLogFile"
)
"Root"
()
) PROP(
 "delay" 1.140000e-10
"netlistDir" ".."
"dataDir" "../delay=1.14e-10"
)

"delay=1.13e-10" "runObject" (
(
"../delay=1.13e-10/psf/logFile"
"../delay=1.13e-10/psf/artistLogFile"
)
"Root"
()
) PROP(
 "delay" 1.130000e-10
"netlistDir" ".."
"dataDir" "../delay=1.13e-10"
)

"delay=1.12e-10" "runObject" (
(
"../delay=1.12e-10/psf/logFile"
"../delay=1.12e-10/psf/artistLogFile"
)
"Root"
()
) PROP(
 "delay" 1.120000e-10
"netlistDir" ".."
"dataDir" "../delay=1.12e-10"
)

"delay=1.11e-10" "runObject" (
(
"../delay=1.11e-10/psf/logFile"
"../delay=1.11e-10/psf/artistLogFile"
)
"Root"
()
) PROP(
 "delay" 1.110000e-10
"netlistDir" ".."
"dataDir" "../delay=1.11e-10"
)

"delay=1.1e-10" "runObject" (
(
"../delay=1.1e-10/psf/logFile"
"../delay=1.1e-10/psf/artistLogFile"
)
"Root"
()
) PROP(
 "delay" 1.100000e-10
"netlistDir" ".."
"dataDir" "../delay=1.1e-10"
)

END
