HEADER
"PSFversion" "1.00"
"Run Generator" "drlRun rev. 1.0"
"Run Time Stamp" "Apr 20 13:12:42 2017"
"simulator" "spectre"
"netlistDir" ".."
TYPE
"runObject" STRUCT(
"logName" ARRAY( * ) STRING *
"parent" STRING *
"sweepVariable" ARRAY( * ) STRING *
) PROP( "key" "runObject" )
VALUE
"Root" "runObject" (
("")
""
("Per")
)
"Per=2.5e-10" "runObject" (
(
"../Per=2.5e-10/psf/logFile"
"../Per=2.5e-10/psf/artistLogFile"
)
"Root"
()
) PROP(
 "Per" 2.500000e-10
"netlistDir" ".."
"dataDir" "../Per=2.5e-10"
)

"Per=2.375e-10" "runObject" (
(
"../Per=2.375e-10/psf/logFile"
"../Per=2.375e-10/psf/artistLogFile"
)
"Root"
()
) PROP(
 "Per" 2.375000e-10
"netlistDir" ".."
"dataDir" "../Per=2.375e-10"
)

"Per=2.25e-10" "runObject" (
(
"../Per=2.25e-10/psf/logFile"
"../Per=2.25e-10/psf/artistLogFile"
)
"Root"
()
) PROP(
 "Per" 2.250000e-10
"netlistDir" ".."
"dataDir" "../Per=2.25e-10"
)

"Per=2.125e-10" "runObject" (
(
"../Per=2.125e-10/psf/logFile"
"../Per=2.125e-10/psf/artistLogFile"
)
"Root"
()
) PROP(
 "Per" 2.125000e-10
"netlistDir" ".."
"dataDir" "../Per=2.125e-10"
)

"Per=2e-10" "runObject" (
(
"../Per=2e-10/psf/logFile"
"../Per=2e-10/psf/artistLogFile"
)
"Root"
()
) PROP(
 "Per" 2.000000e-10
"netlistDir" ".."
"dataDir" "../Per=2e-10"
)

"Per=1.875e-10" "runObject" (
(
"../Per=1.875e-10/psf/logFile"
"../Per=1.875e-10/psf/artistLogFile"
)
"Root"
()
) PROP(
 "Per" 1.875000e-10
"netlistDir" ".."
"dataDir" "../Per=1.875e-10"
)

"Per=1.75e-10" "runObject" (
(
"../Per=1.75e-10/psf/logFile"
"../Per=1.75e-10/psf/artistLogFile"
)
"Root"
()
) PROP(
 "Per" 1.750000e-10
"netlistDir" ".."
"dataDir" "../Per=1.75e-10"
)

"Per=1.625e-10" "runObject" (
(
"../Per=1.625e-10/psf/logFile"
"../Per=1.625e-10/psf/artistLogFile"
)
"Root"
()
) PROP(
 "Per" 1.625000e-10
"netlistDir" ".."
"dataDir" "../Per=1.625e-10"
)

"Per=1.5e-10" "runObject" (
(
"../Per=1.5e-10/psf/logFile"
"../Per=1.5e-10/psf/artistLogFile"
)
"Root"
()
) PROP(
 "Per" 1.500000e-10
"netlistDir" ".."
"dataDir" "../Per=1.5e-10"
)

"Per=1.375e-10" "runObject" (
(
"../Per=1.375e-10/psf/logFile"
"../Per=1.375e-10/psf/artistLogFile"
)
"Root"
()
) PROP(
 "Per" 1.375000e-10
"netlistDir" ".."
"dataDir" "../Per=1.375e-10"
)

"Per=1.25e-10" "runObject" (
(
"../Per=1.25e-10/psf/logFile"
"../Per=1.25e-10/psf/artistLogFile"
)
"Root"
()
) PROP(
 "Per" 1.250000e-10
"netlistDir" ".."
"dataDir" "../Per=1.25e-10"
)

"Per=1.125e-10" "runObject" (
(
"../Per=1.125e-10/psf/logFile"
"../Per=1.125e-10/psf/artistLogFile"
)
"Root"
()
) PROP(
 "Per" 1.125000e-10
"netlistDir" ".."
"dataDir" "../Per=1.125e-10"
)

"Per=9.99999999999999e-11" "runObject" (
(
"../Per=9.99999999999999e-11/psf/logFile"
"../Per=9.99999999999999e-11/psf/artistLogFile"
)
"Root"
()
) PROP(
 "Per" 1.000000e-10
"netlistDir" ".."
"dataDir" "../Per=9.99999999999999e-11"
)

"Per=8.74999999999999e-11" "runObject" (
(
"../Per=8.74999999999999e-11/psf/logFile"
"../Per=8.74999999999999e-11/psf/artistLogFile"
)
"Root"
()
) PROP(
 "Per" 8.750000e-11
"netlistDir" ".."
"dataDir" "../Per=8.74999999999999e-11"
)

"Per=7.49999999999999e-11" "runObject" (
(
"../Per=7.49999999999999e-11/psf/logFile"
"../Per=7.49999999999999e-11/psf/artistLogFile"
)
"Root"
()
) PROP(
 "Per" 7.500000e-11
"netlistDir" ".."
"dataDir" "../Per=7.49999999999999e-11"
)

"Per=6.25e-11" "runObject" (
(
"../Per=6.25e-11/psf/logFile"
"../Per=6.25e-11/psf/artistLogFile"
)
"Root"
()
) PROP(
 "Per" 6.250000e-11
"netlistDir" ".."
"dataDir" "../Per=6.25e-11"
)

END
