HEADER
"PSFversion" "1.00"
"Time Stamp" "May  3 11:00:30 2017"
TYPE
"variable" STRUCT(
"value" FLOAT DOUBLE
) PROP( "key" "element" )
VALUE
"setup" "variable" ( 118e-12 ) PROP( )
"temp" "variable" ( 27 ) PROP( )
END
