HEADER
"PSFversion" "1.00"
"Time Stamp" "May  9 14:04:09 2017"
TYPE
"variable" STRUCT(
"value" FLOAT DOUBLE
) PROP( "key" "element" )
VALUE
"delay" "variable" ( 110e-12 ) PROP( )
"temp" "variable" ( 27 ) PROP( )
END
