HEADER
"PSFversion" "1.00"
"Time Stamp" "Apr 18 10:46:40 2017"
TYPE
"variable" STRUCT(
"value" FLOAT DOUBLE
) PROP( "key" "element" )
VALUE
"temp" "variable" ( 27 ) PROP( )
END
