HEADER
"PSFversion" "1.00"
"Time Stamp" "Apr 20 13:14:13 2017"
TYPE
"variable" STRUCT(
"value" FLOAT DOUBLE
) PROP( "key" "element" )
VALUE
"Per" "variable" ( 74.9999999999999e-12 ) PROP( )
"temp" "variable" ( 27 ) PROP( )
END
