HEADER
"PSFversion" "1.00"
"Time Stamp" "Apr 27 12:52:30 2017"
TYPE
"variable" STRUCT(
"value" FLOAT DOUBLE
) PROP( "key" "element" )
VALUE
"Per" "variable" ( 1e-9 ) PROP( )
"temp" "variable" ( 27 ) PROP( )
END
